 Gaussian 16, Revision C.01,
 Gaussian 16:  ES64L-G16RevC.01  3-Jul-2019

 --------------------
 #p B3LYP/6-31G(d) SP
 --------------------

 ---------------
 Molecule_TETCEN
 ---------------
 Symbolic Z-matrix:
 Charge =  0 Multiplicity = 1

                         Standard orientation:
 ---------------------------------------------------------------------
 Center     Atomic      Atomic             Coordinates (Angstroms)
 Number     Number       Type             X           Y           Z
 ---------------------------------------------------------------------
      1          6           0       -1.117200   -0.609800    4.769400
      2          6           0       -0.474600    0.271700    3.946700
      3          6           0       -0.418500    0.011400    2.501200
      4          6           0        0.213300    0.859900    1.667500
      5          6           0        0.298800    0.611400    0.258700
      6          6           0        0.907600    1.448000   -0.632700
      7          6           0       -0.954800   -1.185900    2.007100
      8          6           0       -1.656800   -2.082000    2.887400
      9          6           0       -1.716800   -1.826700    4.270400
     10          1           0       -1.139000   -0.375700    5.762600
     11          1           0       -0.062000    1.181800    4.279000
     12          1           0        0.648700    1.787000    2.023000
     13          1           0        1.326800    2.380500   -0.269700
     14          1           0       -1.992500   -2.977500    2.476700
     15          1           0       -2.153700   -2.510700    4.904300
     16          6           0       -0.298800   -0.611400   -0.258700
     17          6           0        0.954800    1.185900   -2.007100
     18          6           0       -0.907600   -1.448000    0.632700
     19          6           0       -0.213300   -0.859900   -1.667500
     20          6           0        0.418500   -0.011400   -2.501200
     21          6           0        1.656800    2.082000   -2.887400
     22          1           0       -1.326800   -2.380500    0.269700
     23          1           0       -0.648700   -1.787000   -2.023000
     24          6           0        0.474600   -0.271700   -3.946700
     25          6           0        1.716800    1.826700   -4.270400
     26          1           0        1.992500    2.977500   -2.476700
     27          6           0        1.117200    0.609800   -4.769400
     28          1           0        0.062000   -1.181800   -4.279000
     29          1           0        2.153700    2.510700   -4.904300
     30          1           0        1.139000    0.375700   -5.762600
 ---------------------------------------------------------------------

 SCF Done:  E(RB3LYP) =  -693.129837226     A.U. after   13 cycles

 The electronic state is 1-AG.
 Alpha  occ. eigenvalues --  -10.19344 -10.19343 -10.19342 -10.19307 -10.19146
 Alpha  occ. eigenvalues --  -10.19146 -10.19055 -10.19055 -10.18972 -10.18972
 Alpha  occ. eigenvalues --  -10.18774 -10.18774 -10.18558 -10.18558 -10.18530
 Alpha  occ. eigenvalues --  -10.18530 -10.18493 -10.18492  -0.88708  -0.86287
 Alpha  occ. eigenvalues --   -0.82512  -0.78816  -0.78763  -0.76496  -0.73925
 Alpha  occ. eigenvalues --   -0.73120  -0.69092  -0.65828  -0.61773  -0.61124
 Alpha  occ. eigenvalues --   -0.59737  -0.59722  -0.56101  -0.52627  -0.50397
 Alpha  occ. eigenvalues --   -0.49835  -0.49686  -0.45830  -0.45244  -0.44809
 Alpha  occ. eigenvalues --   -0.43775  -0.42196  -0.41751  -0.41000  -0.40476
 Alpha  occ. eigenvalues --   -0.40397  -0.39768  -0.37603  -0.36585  -0.36226
 Alpha  occ. eigenvalues --   -0.34197  -0.33446  -0.33208  -0.31623  -0.30170
 Alpha  occ. eigenvalues --   -0.28607  -0.27078  -0.23830  -0.22919  -0.17708
 Alpha virt. eigenvalues --   -0.07597  -0.01720  -0.00930   0.02248   0.04867
 Alpha virt. eigenvalues --    0.05096   0.10920   0.11460   0.11578   0.11673
 Alpha virt. eigenvalues --    0.13179   0.13844   0.15420   0.17249   0.17752

 Mulliken charges:
               1
     1  C   -0.139114
     2  C   -0.159529
     3  C    0.147021
     4  C   -0.293277
     5  C    0.174654
     6  C   -0.313338
     7  C    0.140836
     8  C   -0.183984
     9  C   -0.136802
    10  H    0.126173
    11  H    0.128813
    12  H    0.125046
    13  H    0.123561
    14  H    0.127695
    15  H    0.132244
    16  C    0.174654
    17  C    0.140836
    18  C   -0.313338
    19  C   -0.293277
    20  C    0.147021
    21  C   -0.183984
    22  H    0.123561
    23  H    0.125046
    24  C   -0.159529
    25  C   -0.136802
    26  H    0.127695
    27  C   -0.139114
    28  H    0.128813
    29  H    0.132244
    30  H    0.126173
 Sum of Mulliken charges =  -0.00000

 Dipole moment (field-independent basis, Debye):
    X=             -0.0000    Y=             -0.0000    Z=              0.0000  Tot=              0.0000
 Quadrupole moment (field-independent basis, Debye-Ang):
   XX=           -104.7093   YY=            -93.5439   ZZ=            -89.0687
   XY=              7.6098   XZ=             -2.4486   YZ=              0.7234

 Normal termination of Gaussian 16 at Tue Apr  1 16:34:06 2025.
